id,name,psmiles,source,description,Tg,Tm,elastic_modulus,molecular_weight
poly3940_l931,Poly3940_L931,CC,pdf_datasheet,Polymer extracted from datasheet: Poly3940_l931,,,76.0,
poly3940_9297,Poly3940_9297,CC,pdf_datasheet,Polymer extracted from datasheet: Poly3940_9297,,,76.0,
poly3940_7e76,Poly3940_7E76,CC,pdf_datasheet,Polymer extracted from datasheet: Poly3940_7e76,,,76.0,
poly3940_8k33,Poly3940_8K33,CC,pdf_datasheet,Polymer extracted from datasheet: Poly3940_8K33,,,1.0,
poly3940_8584,Poly3940_8584,CC,pdf_datasheet,Polymer extracted from datasheet: Poly3940_8584,,,1.0,
poly3940_8e1d,Poly3940_8E1D,CC,pdf_datasheet,Polymer extracted from datasheet: Poly3940_8e1d,,,1.0,
poly3940_772g,Poly3940_772G,CC,pdf_datasheet,Polymer extracted from datasheet: Poly3940_772G,,,364.0,
poly3940_19t0,Poly3940_19T0,CC,pdf_datasheet,Polymer extracted from datasheet: Poly3940_19T0,,,364.0,
poly3940_e364,Poly3940_E364,CC,pdf_datasheet,Polymer extracted from datasheet: Poly3940_E364,,,364.0,
poly3940_37j7,Poly3940_37J7,CC,pdf_datasheet,Polymer extracted from datasheet: Poly3940_37j7,,,8.0,
poly3940_s369,Poly3940_S369,CC,pdf_datasheet,Polymer extracted from datasheet: Poly3940_S369,,,8.0,
poly3940_ye8z,Poly3940_Ye8Z,CC,pdf_datasheet,Polymer extracted from datasheet: Poly3940_yE8Z,,,8.0,